[Molden Format]

[FREQ]
        1826.6144622158
        4070.3067665522
        4188.6227879228

[FR-COORD]
O         -0.0000000000        0.0000000000       -0.1212566966
H          0.0000000000       -1.4250574376        0.9622158846
H         -0.0000000000        1.4250574376        0.9622158846

[FR-NORM-COORD]
vibration 1
           0.0000000000       -0.0000000000       -0.0704934782
           0.0000000000        0.4296471548        0.5593913274
          -0.0000000000       -0.4296471548        0.5593913274
vibration 2
           0.0000000000        0.0000000000        0.0501491916
           0.0000000000        0.5834181260       -0.3979520314
          -0.0000000000       -0.5834181263       -0.3979520316
vibration 3
           0.0000000000       -0.0707565926        0.0000000000
          -0.0000000000        0.5614792357       -0.4268932190
          -0.0000000000        0.5614792354        0.4268932188
