[Molden Format]
[Atoms] (AU)
NE   1   10           0.0000000000         0.0000000000         0.0000000000
[GTO]
  1 0
 s    3  1.00
      207.0156100000         0.1543289700
       37.7081510000         0.5353281400
       10.2052970000         0.4446345400
 s    3  1.00
        8.2463151000        -0.0999672300
        1.9162662000         0.3995128300
        0.6232293000         0.7001154700
 p    3  1.00
        8.2463151000         0.1559162700
        1.9162662000         0.6076837200
        0.6232293000         0.3919573900

[5D]
[9G]

[MO]
 Sym= A
 Ene=        -3.2212728256e+01
 Spin= Alpha
 Occup=         2.0000000000e+00
  1         9.9501482069e-01
  2         1.9775591455e-02
  3         3.9855174311e-17
  4        -1.9421912529e-17
  5        -1.0410882027e-16
 Sym= A
 Ene=        -1.7060800849e+00
 Spin= Alpha
 Occup=         2.0000000000e+00
  1         2.6940734984e-01
  2        -1.0306520943e+00
  3        -2.7115732616e-15
  4         1.3262044725e-15
  5         2.4378365662e-15
 Sym= A
 Ene=        -5.4300475797e-01
 Spin= Alpha
 Occup=         2.0000000000e+00
  1        -5.3497991800e-16
  2         2.4230061327e-15
  3        -2.8928482528e-03
  4         6.9796708761e-03
  5         9.9997145740e-01
 Sym= A
 Ene=        -5.4300475797e-01
 Spin= Alpha
 Occup=         2.0000000000e+00
  1         3.3805852642e-16
  2        -1.3576249748e-15
  3         5.4255136678e-03
  4        -9.9996081408e-01
  5         6.9952922228e-03
 Sym= A
 Ene=        -5.4300475797e-01
 Spin= Alpha
 Occup=         2.0000000000e+00
  1         7.0359512979e-16
  2        -2.5669437693e-15
  3         9.9998109744e-01
  4         5.4455951284e-03
  5         2.8548665941e-03
