[Molden Format]
made by pyscf v[1.7.6]
[Atoms] (AU)
O   1   8     0.00000000000000     0.00000000000000     0.00000000000000
H   2   1     0.00000000000000    -1.43052267629575     1.10926923511969
H   3   1     0.00000000000000     1.43052267629575     1.10926923511969
[GTO]
1 0
 s    6 1.00
             5484.6717   0.001831099805527
             825.23495   0.013950098518422
             188.04696    0.06844509273075
               52.9645    0.23271427528445
              16.89757    0.47019295006289
             5.7996353    0.35852086192309
 s    3 1.00
             15.539616   -0.11077750382508
             3.5999336   -0.14802630511126
             1.0137618     1.1307670390447
 s    1 1.00
             0.2700058                   1
 p    3 1.00
             15.539616   0.070874299543311
             3.5999336    0.33975279781076
             1.0137618    0.72715859531445
 p    1 1.00
             0.2700058                   1

2 0
 s    3 1.00
             18.731137    0.03349459952309
             2.8253937    0.23472694665786
             0.6401217    0.81375731841339
 s    1 1.00
             0.1612778                   1

3 0
 s    3 1.00
             18.731137    0.03349459952309
             2.8253937    0.23472694665786
             0.6401217    0.81375731841339
 s    1 1.00
             0.1612778                   1

[5d]
[7f]
[9g]

[MO]
 Sym= B2
 Ene=               0
 Spin= Alpha
 Occup=    1.00000
   1                     0
   2                     0
   3                     0
   4      0.64616231882837
   5    3.956603077414e-17
   6                     0
   7       0.5050873710335
   8    3.0927681611297e-17
   9                     0
  10                     0
  11                     0
  12                     0
  13                     0
 Sym= B1
 Ene=               1
 Spin= Alpha
 Occup=    1.00000
   1                     0
   2                     0
   3                     0
   4    3.1641074794085e-17
   5     -0.51673796585456
   6                     0
   7    1.4308596946635e-17
   8     -0.23367712154389
   9                     0
  10      0.26752977800476
  11      0.14977924053118
  12     -0.26752977800476
  13     -0.14977924053118
 Sym= A1
 Ene=               2
 Spin= Alpha
 Occup=    1.00000
   1     0.093423705063428
   2      -0.2004228938661
   3     -0.37354040409857
   4                     0
   5                     0
   6      0.54535745031563
   7                     0
   8                     0
   9       0.3762779563943
  10      0.14223848741526
  11      0.10371524004178
  12      0.14223848741526
  13      0.10371524004178
 Sym= A1
 Ene=               3
 Spin= Alpha
 Occup=    1.00000
   1    -0.093387160044489
   2      0.46418884474336
   3      0.44382453857385
   4                     0
   5                     0
   6       0.1511939105473
   7                     0
   8                     0
   9     0.067791413906015
  10       0.1504499766671
  11    0.00026153048751875
  12       0.1504499766671
  13    0.00026153048751875
 Sym= A1
 Ene=               4
 Spin= Alpha
 Occup=    1.00000
   1       1.0122424600311
   2    -0.025069471017561
   3    -0.063565841724688
   4                     0
   5                     0
   6    -0.017035688627957
   7                     0
   8                     0
   9    -0.011791019931169
  10    -0.017790889613484
  11    0.0027498384143028
  12    -0.017790889613484
  13    0.0027498384143028
 Sym= B1
 Ene=               5
 Spin= Alpha
 Occup=    0.00000
   1                     0
   2                     0
   3                     0
   4    -2.7429303966622e-17
   5      0.44795452837046
   6                     0
   7    -4.4163233154038e-17
   8      0.72124033124957
   9                     0
  10       0.1137935063245
  11       1.2531339448369
  12      -0.1137935063245
  13      -1.2531339448369
 Sym= B2
 Ene=               6
 Spin= Alpha
 Occup=    0.00000
   1                     0
   2                     0
   3                     0
   4     -0.95839478963876
   5    -5.8684755572531e-17
   6                     0
   7       1.0396793076246
   8    6.3661996811113e-17
   9                     0
  10                     0
  11                     0
  12                     0
  13                     0
 Sym= B1
 Ene=               7
 Spin= Alpha
 Occup=    0.00000
   1                     0
   2                     0
   3                     0
   4    -5.5053166613128e-17
   5      0.89908644111034
   6                     0
   7    6.485505549185e-17
   8      -1.0591634345022
   9                     0
  10      0.55822433686181
  11      -1.1857212276654
  12     -0.55822433686181
  13       1.1857212276654
 Sym= A1
 Ene=               8
 Spin= Alpha
 Occup=    0.00000
   1     0.087576598543602
   2     -0.15275379890496
   3      -1.0941371207974
   4                     0
   5                     0
   6     -0.28087095955666
   7                     0
   8                     0
   9     -0.44533011248734
  10       0.0833765746483
  11      0.94706497628904
  12       0.0833765746483
  13      0.94706497628904
 Sym= A1
 Ene=               9
 Spin= Alpha
 Occup=    0.00000
   1    -0.049681403977309
   2      0.65560759389579
   3     -0.61241424821233
   4                     0
   5                     0
   6     -0.87276790101548
   7                     0
   8                     0
   9      0.89636264717172
  10     0.087535353414107
  11    -0.082030870233441
  12     0.087535353414107
  13    -0.082030870233441
 Sym= A1
 Ene=              10
 Spin= Alpha
 Occup=    0.00000
   1    -0.056485292457241
   2     -0.16550980096793
   3      0.80661530075492
   4                     0
   5                     0
   6     0.035291491501949
   7                     0
   8                     0
   9      0.78937261690316
  10      -1.0941782116483
  11      0.25288412053275
  12      -1.0941782116483
  13      0.25288412053275
 Sym= A1
 Ene=              11
 Spin= Alpha
 Occup=    0.00000
   1      0.06879588832834
   2      -1.6093703757985
   3       2.6086921603617
   4                     0
   5                     0
   6      -0.4609264713807
   7                     0
   8                     0
   9      0.90697911379704
  10    -0.058716842321445
  11     -0.83147705176767
  12    -0.058716842321445
  13     -0.83147705176767
 Sym= B1
 Ene=              12
 Spin= Alpha
 Occup=    0.00000
   1                     0
   2                     0
   3                     0
   4    2.5606545403518e-17
   5     -0.41818662199332
   6                     0
   7    -8.6407138696581e-17
   8       1.4111356638786
   9                     0
  10      0.79686224310866
  11      0.01077124242244
  12     -0.79686224310866
  13     -0.01077124242244
